file 3589656 1751720051                                         
version 3
run General-0-20250618-02:49:08-7944
attr configname General
attr datetime 20250618-02:49:08
attr datetimef 20250618-024908
attr experiment General
attr inifile omnetpp.ini
attr iterationvars ""
attr iterationvarsd ""
attr iterationvarsf ""
attr measurement ""
attr network WSN_EnergyEfficient
attr processid 7944
attr repetition 0
attr replication #0
attr resultdir results
attr runnumber 0
attr seedset 0
config image-path ../../inet4.5/images
config network WSN_EnergyEfficient
config sim-time-limit 1000s
config visualizer.enabled true
config radioMedium.displaySignals true
config record-eventlog true
config output-scalar-file results.sca
config output-vector-file results.vec
config **.scalar-recording true
config **.vector-recording true

vector 4 WSN_EnergyEfficient.sensorNode0.wlan[0].mac.dcf.channelAccess.pendingQueue queueLength:vector ETV
attr autoWarmupFilter false
attr interpolationmode sample-hold
attr recordingmode vector
attr source "warmup(atomic(constant0(packetPushEnded) + count(packetPushStarted) - count(packetPulled) - count(packetRemoved) - count(packetDropped)))"
attr title "queue length"
attr unit pk
4	325567 45 0 0 0 0 5 0 0 0 0
vector 5 WSN_EnergyEfficient.sensorNode0.wlan[0].mac.dcf.channelAccess.pendingQueue queueBitLength:vector ETV
attr autoWarmupFilter false
attr interpolationmode sample-hold
attr recordingmode vector
attr source "warmup(atomic(constant0(packetPushEnded) + sum(packetLength(packetPushStarted)) - sum(packetLength(packetPulled)) - sum(packetLength(packetRemoved)) - sum(packetLength(packetDropped))))"
attr title "queue bit length"
attr unit b
5	325612 45 0 0 0 0 5 0 0 0 0
vector 8 WSN_EnergyEfficient.sensorNode0.wlan[0].mac.dcf.channelAccess.pendingQueue incomingDataRate:vector ETV
attr interpolationmode linear
attr recordingmode vector
attr source throughput(packetPushStarted)
attr title "incoming datarate"
attr unit bps
8	3129958 13660 34304 34304 0.1 86.924606585345 870 0 0 0 0
vector 10 WSN_EnergyEfficient.sensorNode0.wlan[0].mac.dcf.channelAccess.pendingQueue outgoingDataRate:vector ETV
attr interpolationmode linear
attr recordingmode vector
attr source throughput(packetPulled)
attr title "outgoing datarate"
attr unit bps
10	3143618 14530 34304 34304 0.1 86.924606585345 870 0 0 0 0
vector 16 WSN_EnergyEfficient.sensorNode0.wlan[0].mac.dcf.channelAccess.inProgressFrames queueLength:vector ETV
attr autoWarmupFilter false
attr interpolationmode sample-hold
attr recordingmode vector
attr source "warmup(count(packetEnqueued) - count(packetDequeued))"
attr title "queue length"
16	325657 20 0 0 0 0 2 0 0 0 0
vector 18 WSN_EnergyEfficient.sensorNode0.wlan[0].mac.dcf.channelAccess.contention backoffActive:vector ETV
attr autoWarmupFilter false
attr interpolationmode sample-hold
attr recordingmode vector
attr source warmup(count(backoffStarted)-count(backoffStopped))
attr title "backoff active"
18	325677 20 0 0 0 0 2 0 0 0 0
vector 19 WSN_EnergyEfficient.sensorNode0.wlan[0].mac.dcf.channelAccess.contention stateChanged:vector ETV
attr enum IDLE,DEFER,IFS_AND_BACKOFF
attr interpolationmode none
attr recordingmode vector
attr title "contention state changed"
attr type enum
19	325697 47868 0 34266 0 86.543044910273 1738 0 0 0 0
vector 21 WSN_EnergyEfficient.sensorNode0.wlan[0].mac.dcf.recoveryProcedure contentionWindowChanged:vector ETV
attr interpolationmode sample-hold
attr recordingmode vector
attr title "contention window"
21	373565 11 0 0 0 0 1 31 31 31 961
vector 28 WSN_EnergyEfficient.sensorNode0.wlan[0].mac.dcf packetReceivedFromPeer:vector(packetBytes) ETV
attr interpolationmode none
attr recordingmode vector(packetBytes)
attr title "packets received, packetBytes"
28	373576 12397 63 34267 0.143044910273 86.543044910273 434 32 32 13888 444416
vector 30 WSN_EnergyEfficient.sensorNode0.wlan[0].mac.dcf packetReceivedFromPeerMulticast:vector(packetBytes) ETV
attr interpolationmode none
attr recordingmode vector(packetBytes)
attr source ieee80211Multicast(packetReceivedFromPeer)
attr title "packets received: multicast, packetBytes"
30	385973 12397 63 34267 0.143044910273 86.543044910273 434 32 32 13888 444416
vector 31 WSN_EnergyEfficient.sensorNode0.wlan[0].mac.dcf packetReceivedFromPeerBroadcast:vector(packetBytes) ETV
attr interpolationmode none
attr recordingmode vector(packetBytes)
attr source ieee80211Broadcast(packetReceivedFromPeer)
attr title "packets received: broadcast, packetBytes"
31	398370 12397 63 34267 0.143044910273 86.543044910273 434 32 32 13888 444416
vector 33 WSN_EnergyEfficient.sensorNode0.wlan[0].mac.dcf packetReceivedFromPeerWithoutRetry:vector(packetBytes) ETV
attr interpolationmode none
attr recordingmode vector(packetBytes)
attr source ieee80211NotRetry(packetReceivedFromPeer)
attr title "packets received: without retry, packetBytes"
33	410767 12397 63 34267 0.143044910273 86.543044910273 434 32 32 13888 444416
vector 38 WSN_EnergyEfficient.sensorNode0.wlan[0].mac.dcf frameSequenceActive:vector ETV
attr autoWarmupFilter false
attr interpolationmode sample-hold
attr recordingmode vector
attr source warmup(count(frameSequenceStarted)-count(frameSequenceFinished))
attr title "frame sequence active"
38	423164 20 0 0 0 0 2 0 0 0 0
vector 44 WSN_EnergyEfficient.sensorNode0.wlan[0].mac packetReceivedFromLower:vector(packetBytes) ETV
attr interpolationmode none
attr recordingmode vector(packetBytes)
attr title "packets received from lower layer, packetBytes"
44	423184 12397 63 34267 0.143044910273 86.543044910273 434 32 32 13888 444416
vector 52 WSN_EnergyEfficient.sensorNode0.wlan[0].radio radioMode:vector ETV
attr interpolationmode sample-hold
attr recordingmode vector
attr source radioModeChanged
attr title "Radio mode"
52	435581 30 0 0 0 0 3 0 2 2 4
vector 53 WSN_EnergyEfficient.sensorNode0.wlan[0].radio receptionState:vector ETV
attr interpolationmode sample-hold
attr recordingmode vector
attr source receptionStateChanged
attr title "Radio reception state"
53	435611 23934 0 34266 0 86.543044910273 869 1 3 1737 4341
vector 55 WSN_EnergyEfficient.sensorNode0.wlan[0].radio radioChannel:vector ETV
attr interpolationmode sample-hold
attr recordingmode vector
attr source radioChannelChanged
attr title "Radio channel"
55	459545 10 0 0 0 0 1 0 0 0 0
vector 68 WSN_EnergyEfficient.sensorNode0.udp passedUpPk:vector(count) ETV
attr interpolationmode none
attr recordingmode vector(count)
attr source packetSentToUpper
attr title "packets passed up, count"
68	459555 10 0 0 0 0 1 0 0 0 0
vector 69 WSN_EnergyEfficient.sensorNode0.udp droppedPkWrongPort:vector(count) ETV
attr interpolationmode none
attr recordingmode vector(count)
attr source packetDropReasonIsNoPortFound(packetDropped)
attr title "packets dropped (wrong port), count"
69	459565 10 0 0 0 0 1 0 0 0 0
vector 70 WSN_EnergyEfficient.sensorNode0.udp droppedPkBadChecksum:vector(count) ETV
attr interpolationmode none
attr recordingmode vector(count)
attr source packetDropReasonIsIncorrectlyReceived(packetDropped)
attr title "packets dropped (checksum error), count"
70	459575 10 0 0 0 0 1 0 0 0 0
vector 75 WSN_EnergyEfficient.sensorNode1.wlan[0].mac.dcf.channelAccess.pendingQueue queueLength:vector ETV
attr autoWarmupFilter false
attr interpolationmode sample-hold
attr recordingmode vector
attr source "warmup(atomic(constant0(packetPushEnded) + count(packetPushStarted) - count(packetPulled) - count(packetRemoved) - count(packetDropped)))"
attr title "queue length"
attr unit pk
75	459585 50 0 0 0 0 5 0 0 0 0
vector 76 WSN_EnergyEfficient.sensorNode1.wlan[0].mac.dcf.channelAccess.pendingQueue queueBitLength:vector ETV
attr autoWarmupFilter false
attr interpolationmode sample-hold
attr recordingmode vector
attr source "warmup(atomic(constant0(packetPushEnded) + sum(packetLength(packetPushStarted)) - sum(packetLength(packetPulled)) - sum(packetLength(packetRemoved)) - sum(packetLength(packetDropped))))"
attr title "queue bit length"
attr unit b
76	459635 50 0 0 0 0 5 0 0 0 0
vector 79 WSN_EnergyEfficient.sensorNode1.wlan[0].mac.dcf.channelAccess.pendingQueue incomingDataRate:vector ETV
attr interpolationmode linear
attr recordingmode vector
attr source throughput(packetPushStarted)
attr title "incoming datarate"
attr unit bps
79	3158148 14530 34304 34304 0.1 86.924606585345 870 0 0 0 0
vector 81 WSN_EnergyEfficient.sensorNode1.wlan[0].mac.dcf.channelAccess.pendingQueue outgoingDataRate:vector ETV
attr interpolationmode linear
attr recordingmode vector
attr source throughput(packetPulled)
attr title "outgoing datarate"
attr unit bps
81	3172678 14530 34304 34304 0.1 86.924606585345 870 0 0 0 0
vector 87 WSN_EnergyEfficient.sensorNode1.wlan[0].mac.dcf.channelAccess.inProgressFrames queueLength:vector ETV
attr autoWarmupFilter false
attr interpolationmode sample-hold
attr recordingmode vector
attr source "warmup(count(packetEnqueued) - count(packetDequeued))"
attr title "queue length"
87	459685 20 0 0 0 0 2 0 0 0 0
vector 89 WSN_EnergyEfficient.sensorNode1.wlan[0].mac.dcf.channelAccess.contention backoffActive:vector ETV
attr autoWarmupFilter false
attr interpolationmode sample-hold
attr recordingmode vector
attr source warmup(count(backoffStarted)-count(backoffStopped))
attr title "backoff active"
89	459705 20 0 0 0 0 2 0 0 0 0
vector 90 WSN_EnergyEfficient.sensorNode1.wlan[0].mac.dcf.channelAccess.contention stateChanged:vector ETV
attr enum IDLE,DEFER,IFS_AND_BACKOFF
attr interpolationmode none
attr recordingmode vector
attr title "contention state changed"
attr type enum
90	459725 47868 0 34257 0 86.543044843766 1738 0 0 0 0
vector 92 WSN_EnergyEfficient.sensorNode1.wlan[0].mac.dcf.recoveryProcedure contentionWindowChanged:vector ETV
attr interpolationmode sample-hold
attr recordingmode vector
attr title "contention window"
92	507593 11 0 0 0 0 1 31 31 31 961
vector 99 WSN_EnergyEfficient.sensorNode1.wlan[0].mac.dcf packetReceivedFromPeer:vector(packetBytes) ETV
attr interpolationmode none
attr recordingmode vector(packetBytes)
attr title "packets received, packetBytes"
99	507604 12397 54 34258 0.143044843766 86.543044843766 434 32 32 13888 444416
vector 101 WSN_EnergyEfficient.sensorNode1.wlan[0].mac.dcf packetReceivedFromPeerMulticast:vector(packetBytes) ETV
attr interpolationmode none
attr recordingmode vector(packetBytes)
attr source ieee80211Multicast(packetReceivedFromPeer)
attr title "packets received: multicast, packetBytes"
101	520001 12831 54 34258 0.143044843766 86.543044843766 434 32 32 13888 444416
vector 102 WSN_EnergyEfficient.sensorNode1.wlan[0].mac.dcf packetReceivedFromPeerBroadcast:vector(packetBytes) ETV
attr interpolationmode none
attr recordingmode vector(packetBytes)
attr source ieee80211Broadcast(packetReceivedFromPeer)
attr title "packets received: broadcast, packetBytes"
102	532832 12831 54 34258 0.143044843766 86.543044843766 434 32 32 13888 444416
vector 104 WSN_EnergyEfficient.sensorNode1.wlan[0].mac.dcf packetReceivedFromPeerWithoutRetry:vector(packetBytes) ETV
attr interpolationmode none
attr recordingmode vector(packetBytes)
attr source ieee80211NotRetry(packetReceivedFromPeer)
attr title "packets received: without retry, packetBytes"
104	545663 12831 54 34258 0.143044843766 86.543044843766 434 32 32 13888 444416
vector 109 WSN_EnergyEfficient.sensorNode1.wlan[0].mac.dcf frameSequenceActive:vector ETV
attr autoWarmupFilter false
attr interpolationmode sample-hold
attr recordingmode vector
attr source warmup(count(frameSequenceStarted)-count(frameSequenceFinished))
attr title "frame sequence active"
109	558494 22 0 0 0 0 2 0 0 0 0
vector 115 WSN_EnergyEfficient.sensorNode1.wlan[0].mac packetReceivedFromLower:vector(packetBytes) ETV
attr interpolationmode none
attr recordingmode vector(packetBytes)
attr title "packets received from lower layer, packetBytes"
115	558516 12831 54 34258 0.143044843766 86.543044843766 434 32 32 13888 444416
vector 123 WSN_EnergyEfficient.sensorNode1.wlan[0].radio radioMode:vector ETV
attr interpolationmode sample-hold
attr recordingmode vector
attr source radioModeChanged
attr title "Radio mode"
123	571347 33 0 0 0 0 3 0 2 2 4
vector 124 WSN_EnergyEfficient.sensorNode1.wlan[0].radio receptionState:vector ETV
attr interpolationmode sample-hold
attr recordingmode vector
attr source receptionStateChanged
attr title "Radio reception state"
124	571380 24803 0 34257 0 86.543044843766 869 1 3 1737 4341
vector 126 WSN_EnergyEfficient.sensorNode1.wlan[0].radio radioChannel:vector ETV
attr interpolationmode sample-hold
attr recordingmode vector
attr source radioChannelChanged
attr title "Radio channel"
126	596183 11 0 0 0 0 1 0 0 0 0
vector 139 WSN_EnergyEfficient.sensorNode1.udp passedUpPk:vector(count) ETV
attr interpolationmode none
attr recordingmode vector(count)
attr source packetSentToUpper
attr title "packets passed up, count"
139	596194 11 0 0 0 0 1 0 0 0 0
vector 140 WSN_EnergyEfficient.sensorNode1.udp droppedPkWrongPort:vector(count) ETV
attr interpolationmode none
attr recordingmode vector(count)
attr source packetDropReasonIsNoPortFound(packetDropped)
attr title "packets dropped (wrong port), count"
140	596205 11 0 0 0 0 1 0 0 0 0
vector 141 WSN_EnergyEfficient.sensorNode1.udp droppedPkBadChecksum:vector(count) ETV
attr interpolationmode none
attr recordingmode vector(count)
attr source packetDropReasonIsIncorrectlyReceived(packetDropped)
attr title "packets dropped (checksum error), count"
141	596216 11 0 0 0 0 1 0 0 0 0
vector 146 WSN_EnergyEfficient.sensorNode2.wlan[0].mac.dcf.channelAccess.pendingQueue queueLength:vector ETV
attr autoWarmupFilter false
attr interpolationmode sample-hold
attr recordingmode vector
attr source "warmup(atomic(constant0(packetPushEnded) + count(packetPushStarted) - count(packetPulled) - count(packetRemoved) - count(packetDropped)))"
attr title "queue length"
attr unit pk
146	596227 55 0 0 0 0 5 0 0 0 0
vector 147 WSN_EnergyEfficient.sensorNode2.wlan[0].mac.dcf.channelAccess.pendingQueue queueBitLength:vector ETV
attr autoWarmupFilter false
attr interpolationmode sample-hold
attr recordingmode vector
attr source "warmup(atomic(constant0(packetPushEnded) + sum(packetLength(packetPushStarted)) - sum(packetLength(packetPulled)) - sum(packetLength(packetRemoved)) - sum(packetLength(packetDropped))))"
attr title "queue bit length"
attr unit b
147	596282 55 0 0 0 0 5 0 0 0 0
vector 150 WSN_EnergyEfficient.sensorNode2.wlan[0].mac.dcf.channelAccess.pendingQueue incomingDataRate:vector ETV
attr interpolationmode linear
attr recordingmode vector
attr source throughput(packetPushStarted)
attr title "incoming datarate"
attr unit bps
150	3187208 15400 34304 34304 0.1 86.924606585345 870 0 0 0 0
vector 152 WSN_EnergyEfficient.sensorNode2.wlan[0].mac.dcf.channelAccess.pendingQueue outgoingDataRate:vector ETV
attr interpolationmode linear
attr recordingmode vector
attr source throughput(packetPulled)
attr title "outgoing datarate"
attr unit bps
152	3202608 15400 34304 34304 0.1 86.924606585345 870 0 0 0 0
vector 158 WSN_EnergyEfficient.sensorNode2.wlan[0].mac.dcf.channelAccess.inProgressFrames queueLength:vector ETV
attr autoWarmupFilter false
attr interpolationmode sample-hold
attr recordingmode vector
attr source "warmup(count(packetEnqueued) - count(packetDequeued))"
attr title "queue length"
158	596337 22 0 0 0 0 2 0 0 0 0
vector 160 WSN_EnergyEfficient.sensorNode2.wlan[0].mac.dcf.channelAccess.contention backoffActive:vector ETV
attr autoWarmupFilter false
attr interpolationmode sample-hold
attr recordingmode vector
attr source warmup(count(backoffStarted)-count(backoffStopped))
attr title "backoff active"
160	596359 22 0 0 0 0 2 0 0 0 0
vector 161 WSN_EnergyEfficient.sensorNode2.wlan[0].mac.dcf.channelAccess.contention stateChanged:vector ETV
attr enum IDLE,DEFER,IFS_AND_BACKOFF
attr interpolationmode none
attr recordingmode vector
attr title "contention state changed"
attr type enum
161	596381 49604 0 34239 0 86.543044491195 1738 0 0 0 0
vector 163 WSN_EnergyEfficient.sensorNode2.wlan[0].mac.dcf.recoveryProcedure contentionWindowChanged:vector ETV
attr interpolationmode sample-hold
attr recordingmode vector
attr title "contention window"
163	645985 12 0 0 0 0 1 31 31 31 961
vector 170 WSN_EnergyEfficient.sensorNode2.wlan[0].mac.dcf packetReceivedFromPeer:vector(packetBytes) ETV
attr interpolationmode none
attr recordingmode vector(packetBytes)
attr title "packets received, packetBytes"
170	645997 12831 36 34240 0.143044491195 86.543044491195 434 32 32 13888 444416
vector 172 WSN_EnergyEfficient.sensorNode2.wlan[0].mac.dcf packetReceivedFromPeerMulticast:vector(packetBytes) ETV
attr interpolationmode none
attr recordingmode vector(packetBytes)
attr source ieee80211Multicast(packetReceivedFromPeer)
attr title "packets received: multicast, packetBytes"
172	658828 12831 36 34240 0.143044491195 86.543044491195 434 32 32 13888 444416
vector 173 WSN_EnergyEfficient.sensorNode2.wlan[0].mac.dcf packetReceivedFromPeerBroadcast:vector(packetBytes) ETV
attr interpolationmode none
attr recordingmode vector(packetBytes)
attr source ieee80211Broadcast(packetReceivedFromPeer)
attr title "packets received: broadcast, packetBytes"
173	671659 12831 36 34240 0.143044491195 86.543044491195 434 32 32 13888 444416
vector 175 WSN_EnergyEfficient.sensorNode2.wlan[0].mac.dcf packetReceivedFromPeerWithoutRetry:vector(packetBytes) ETV
attr interpolationmode none
attr recordingmode vector(packetBytes)
attr source ieee80211NotRetry(packetReceivedFromPeer)
attr title "packets received: without retry, packetBytes"
175	684490 12831 36 34240 0.143044491195 86.543044491195 434 32 32 13888 444416
vector 180 WSN_EnergyEfficient.sensorNode2.wlan[0].mac.dcf frameSequenceActive:vector ETV
attr autoWarmupFilter false
attr interpolationmode sample-hold
attr recordingmode vector
attr source warmup(count(frameSequenceStarted)-count(frameSequenceFinished))
attr title "frame sequence active"
180	697321 22 0 0 0 0 2 0 0 0 0
vector 186 WSN_EnergyEfficient.sensorNode2.wlan[0].mac packetReceivedFromLower:vector(packetBytes) ETV
attr interpolationmode none
attr recordingmode vector(packetBytes)
attr title "packets received from lower layer, packetBytes"
186	697343 12831 36 34240 0.143044491195 86.543044491195 434 32 32 13888 444416
vector 194 WSN_EnergyEfficient.sensorNode2.wlan[0].radio radioMode:vector ETV
attr interpolationmode sample-hold
attr recordingmode vector
attr source radioModeChanged
attr title "Radio mode"
194	710174 33 0 0 0 0 3 0 2 2 4
vector 195 WSN_EnergyEfficient.sensorNode2.wlan[0].radio receptionState:vector ETV
attr interpolationmode sample-hold
attr recordingmode vector
attr source receptionStateChanged
attr title "Radio reception state"
195	710207 24802 0 34239 0 86.543044491195 869 1 3 1737 4341
vector 197 WSN_EnergyEfficient.sensorNode2.wlan[0].radio radioChannel:vector ETV
attr interpolationmode sample-hold
attr recordingmode vector
attr source radioChannelChanged
attr title "Radio channel"
197	735009 11 0 0 0 0 1 0 0 0 0
vector 210 WSN_EnergyEfficient.sensorNode2.udp passedUpPk:vector(count) ETV
attr interpolationmode none
attr recordingmode vector(count)
attr source packetSentToUpper
attr title "packets passed up, count"
210	735020 11 0 0 0 0 1 0 0 0 0
vector 211 WSN_EnergyEfficient.sensorNode2.udp droppedPkWrongPort:vector(count) ETV
attr interpolationmode none
attr recordingmode vector(count)
attr source packetDropReasonIsNoPortFound(packetDropped)
attr title "packets dropped (wrong port), count"
211	735031 11 0 0 0 0 1 0 0 0 0
vector 212 WSN_EnergyEfficient.sensorNode2.udp droppedPkBadChecksum:vector(count) ETV
attr interpolationmode none
attr recordingmode vector(count)
attr source packetDropReasonIsIncorrectlyReceived(packetDropped)
attr title "packets dropped (checksum error), count"
212	735042 11 0 0 0 0 1 0 0 0 0
vector 217 WSN_EnergyEfficient.sensorNode3.wlan[0].mac.dcf.channelAccess.pendingQueue queueLength:vector ETV
attr autoWarmupFilter false
attr interpolationmode sample-hold
attr recordingmode vector
attr source "warmup(atomic(constant0(packetPushEnded) + count(packetPushStarted) - count(packetPulled) - count(packetRemoved) - count(packetDropped)))"
attr title "queue length"
attr unit pk
217	735053 55 0 0 0 0 5 0 0 0 0
vector 218 WSN_EnergyEfficient.sensorNode3.wlan[0].mac.dcf.channelAccess.pendingQueue queueBitLength:vector ETV
attr autoWarmupFilter false
attr interpolationmode sample-hold
attr recordingmode vector
attr source "warmup(atomic(constant0(packetPushEnded) + sum(packetLength(packetPushStarted)) - sum(packetLength(packetPulled)) - sum(packetLength(packetRemoved)) - sum(packetLength(packetDropped))))"
attr title "queue bit length"
attr unit b
218	735108 55 0 0 0 0 5 0 0 0 0
vector 221 WSN_EnergyEfficient.sensorNode3.wlan[0].mac.dcf.channelAccess.pendingQueue incomingDataRate:vector ETV
attr interpolationmode linear
attr recordingmode vector
attr source throughput(packetPushStarted)
attr title "incoming datarate"
attr unit bps
221	3218008 15400 34304 34304 0.1 86.924606585345 870 0 0 0 0
vector 223 WSN_EnergyEfficient.sensorNode3.wlan[0].mac.dcf.channelAccess.pendingQueue outgoingDataRate:vector ETV
attr interpolationmode linear
attr recordingmode vector
attr source throughput(packetPulled)
attr title "outgoing datarate"
attr unit bps
223	3233408 15400 34304 34304 0.1 86.924606585345 870 0 0 0 0
vector 229 WSN_EnergyEfficient.sensorNode3.wlan[0].mac.dcf.channelAccess.inProgressFrames queueLength:vector ETV
attr autoWarmupFilter false
attr interpolationmode sample-hold
attr recordingmode vector
attr source "warmup(count(packetEnqueued) - count(packetDequeued))"
attr title "queue length"
229	735163 22 0 0 0 0 2 0 0 0 0
vector 231 WSN_EnergyEfficient.sensorNode3.wlan[0].mac.dcf.channelAccess.contention backoffActive:vector ETV
attr autoWarmupFilter false
attr interpolationmode sample-hold
attr recordingmode vector
attr source warmup(count(backoffStarted)-count(backoffStopped))
attr title "backoff active"
231	735185 22 0 0 0 0 2 0 0 0 0
vector 232 WSN_EnergyEfficient.sensorNode3.wlan[0].mac.dcf.channelAccess.contention stateChanged:vector ETV
attr enum IDLE,DEFER,IFS_AND_BACKOFF
attr interpolationmode none
attr recordingmode vector
attr title "contention state changed"
attr type enum
232	735207 49606 0 34263 0 86.543044877833 1738 0 0 0 0
vector 234 WSN_EnergyEfficient.sensorNode3.wlan[0].mac.dcf.recoveryProcedure contentionWindowChanged:vector ETV
attr interpolationmode sample-hold
attr recordingmode vector
attr title "contention window"
234	784813 12 0 0 0 0 1 31 31 31 961
vector 241 WSN_EnergyEfficient.sensorNode3.wlan[0].mac.dcf packetReceivedFromPeer:vector(packetBytes) ETV
attr interpolationmode none
attr recordingmode vector(packetBytes)
attr title "packets received, packetBytes"
241	784825 12831 60 34264 0.143044877833 86.543044877833 434 32 32 13888 444416
vector 243 WSN_EnergyEfficient.sensorNode3.wlan[0].mac.dcf packetReceivedFromPeerMulticast:vector(packetBytes) ETV
attr interpolationmode none
attr recordingmode vector(packetBytes)
attr source ieee80211Multicast(packetReceivedFromPeer)
attr title "packets received: multicast, packetBytes"
243	797656 12831 60 34264 0.143044877833 86.543044877833 434 32 32 13888 444416
vector 244 WSN_EnergyEfficient.sensorNode3.wlan[0].mac.dcf packetReceivedFromPeerBroadcast:vector(packetBytes) ETV
attr interpolationmode none
attr recordingmode vector(packetBytes)
attr source ieee80211Broadcast(packetReceivedFromPeer)
attr title "packets received: broadcast, packetBytes"
244	810487 12831 60 34264 0.143044877833 86.543044877833 434 32 32 13888 444416
vector 246 WSN_EnergyEfficient.sensorNode3.wlan[0].mac.dcf packetReceivedFromPeerWithoutRetry:vector(packetBytes) ETV
attr interpolationmode none
attr recordingmode vector(packetBytes)
attr source ieee80211NotRetry(packetReceivedFromPeer)
attr title "packets received: without retry, packetBytes"
246	823318 12831 60 34264 0.143044877833 86.543044877833 434 32 32 13888 444416
vector 251 WSN_EnergyEfficient.sensorNode3.wlan[0].mac.dcf frameSequenceActive:vector ETV
attr autoWarmupFilter false
attr interpolationmode sample-hold
attr recordingmode vector
attr source warmup(count(frameSequenceStarted)-count(frameSequenceFinished))
attr title "frame sequence active"
251	836149 22 0 0 0 0 2 0 0 0 0
vector 257 WSN_EnergyEfficient.sensorNode3.wlan[0].mac packetReceivedFromLower:vector(packetBytes) ETV
attr interpolationmode none
attr recordingmode vector(packetBytes)
attr title "packets received from lower layer, packetBytes"
257	836171 12831 60 34264 0.143044877833 86.543044877833 434 32 32 13888 444416
vector 265 WSN_EnergyEfficient.sensorNode3.wlan[0].radio radioMode:vector ETV
attr interpolationmode sample-hold
attr recordingmode vector
attr source radioModeChanged
attr title "Radio mode"
265	849002 33 0 0 0 0 3 0 2 2 4
vector 266 WSN_EnergyEfficient.sensorNode3.wlan[0].radio receptionState:vector ETV
attr interpolationmode sample-hold
attr recordingmode vector
attr source receptionStateChanged
attr title "Radio reception state"
266	849035 24803 0 34263 0 86.543044877833 869 1 3 1737 4341
vector 268 WSN_EnergyEfficient.sensorNode3.wlan[0].radio radioChannel:vector ETV
attr interpolationmode sample-hold
attr recordingmode vector
attr source radioChannelChanged
attr title "Radio channel"
268	873838 11 0 0 0 0 1 0 0 0 0
vector 281 WSN_EnergyEfficient.sensorNode3.udp passedUpPk:vector(count) ETV
attr interpolationmode none
attr recordingmode vector(count)
attr source packetSentToUpper
attr title "packets passed up, count"
281	873849 11 0 0 0 0 1 0 0 0 0
vector 282 WSN_EnergyEfficient.sensorNode3.udp droppedPkWrongPort:vector(count) ETV
attr interpolationmode none
attr recordingmode vector(count)
attr source packetDropReasonIsNoPortFound(packetDropped)
attr title "packets dropped (wrong port), count"
282	873860 11 0 0 0 0 1 0 0 0 0
vector 283 WSN_EnergyEfficient.sensorNode3.udp droppedPkBadChecksum:vector(count) ETV
attr interpolationmode none
attr recordingmode vector(count)
attr source packetDropReasonIsIncorrectlyReceived(packetDropped)
attr title "packets dropped (checksum error), count"
283	873871 11 0 0 0 0 1 0 0 0 0
vector 288 WSN_EnergyEfficient.sensorNode4.wlan[0].mac.dcf.channelAccess.pendingQueue queueLength:vector ETV
attr autoWarmupFilter false
attr interpolationmode sample-hold
attr recordingmode vector
attr source "warmup(atomic(constant0(packetPushEnded) + count(packetPushStarted) - count(packetPulled) - count(packetRemoved) - count(packetDropped)))"
attr title "queue length"
attr unit pk
288	873882 55 0 0 0 0 5 0 0 0 0
vector 289 WSN_EnergyEfficient.sensorNode4.wlan[0].mac.dcf.channelAccess.pendingQueue queueBitLength:vector ETV
attr autoWarmupFilter false
attr interpolationmode sample-hold
attr recordingmode vector
attr source "warmup(atomic(constant0(packetPushEnded) + sum(packetLength(packetPushStarted)) - sum(packetLength(packetPulled)) - sum(packetLength(packetRemoved)) - sum(packetLength(packetDropped))))"
attr title "queue bit length"
attr unit b
289	873937 55 0 0 0 0 5 0 0 0 0
vector 292 WSN_EnergyEfficient.sensorNode4.wlan[0].mac.dcf.channelAccess.pendingQueue incomingDataRate:vector ETV
attr interpolationmode linear
attr recordingmode vector
attr source throughput(packetPushStarted)
attr title "incoming datarate"
attr unit bps
292	3248808 15400 34304 34304 0.1 86.924606585345 870 0 0 0 0
vector 294 WSN_EnergyEfficient.sensorNode4.wlan[0].mac.dcf.channelAccess.pendingQueue outgoingDataRate:vector ETV
attr interpolationmode linear
attr recordingmode vector
attr source throughput(packetPulled)
attr title "outgoing datarate"
attr unit bps
294	3264208 15400 34304 34304 0.1 86.924606585345 870 0 0 0 0
vector 300 WSN_EnergyEfficient.sensorNode4.wlan[0].mac.dcf.channelAccess.inProgressFrames queueLength:vector ETV
attr autoWarmupFilter false
attr interpolationmode sample-hold
attr recordingmode vector
attr source "warmup(count(packetEnqueued) - count(packetDequeued))"
attr title "queue length"
300	873992 22 0 0 0 0 2 0 0 0 0
vector 302 WSN_EnergyEfficient.sensorNode4.wlan[0].mac.dcf.channelAccess.contention backoffActive:vector ETV
attr autoWarmupFilter false
attr interpolationmode sample-hold
attr recordingmode vector
attr source warmup(count(backoffStarted)-count(backoffStopped))
attr title "backoff active"
302	874014 22 0 0 0 0 2 0 0 0 0
vector 303 WSN_EnergyEfficient.sensorNode4.wlan[0].mac.dcf.channelAccess.contention stateChanged:vector ETV
attr enum IDLE,DEFER,IFS_AND_BACKOFF
attr interpolationmode none
attr recordingmode vector
attr title "contention state changed"
attr type enum
303	874036 49658 0 34304 0 86.924606585345 1740 0 0 0 0
vector 305 WSN_EnergyEfficient.sensorNode4.wlan[0].mac.dcf.recoveryProcedure contentionWindowChanged:vector ETV
attr interpolationmode sample-hold
attr recordingmode vector
attr title "contention window"
305	923694 12 0 0 0 0 1 31 31 31 961
vector 312 WSN_EnergyEfficient.sensorNode4.wlan[0].mac.dcf packetReceivedFromPeer:vector(packetBytes) ETV
attr interpolationmode none
attr recordingmode vector(packetBytes)
attr title "packets received, packetBytes"
312	923706 12829 42 34246 0.143044561336 86.543044561336 434 32 32 13888 444416
vector 314 WSN_EnergyEfficient.sensorNode4.wlan[0].mac.dcf packetReceivedFromPeerMulticast:vector(packetBytes) ETV
attr interpolationmode none
attr recordingmode vector(packetBytes)
attr source ieee80211Multicast(packetReceivedFromPeer)
attr title "packets received: multicast, packetBytes"
314	936535 12829 42 34246 0.143044561336 86.543044561336 434 32 32 13888 444416
vector 315 WSN_EnergyEfficient.sensorNode4.wlan[0].mac.dcf packetReceivedFromPeerBroadcast:vector(packetBytes) ETV
attr interpolationmode none
attr recordingmode vector(packetBytes)
attr source ieee80211Broadcast(packetReceivedFromPeer)
attr title "packets received: broadcast, packetBytes"
315	949364 12829 42 34246 0.143044561336 86.543044561336 434 32 32 13888 444416
vector 317 WSN_EnergyEfficient.sensorNode4.wlan[0].mac.dcf packetReceivedFromPeerWithoutRetry:vector(packetBytes) ETV
attr interpolationmode none