file 220174 1751720051                                          
version 3
run LEACH-0-20250701-23:25:09-22088
attr configname LEACH
attr datetime 20250701-23:25:09
attr datetimef 20250701-232509
attr experiment LEACH
attr inifile omnetpp.ini
attr iterationvars $txPower=2.24
attr iterationvarsd txPower=2.24
attr iterationvarsf txPower=2.24-
attr measurement $txPower=2.24
attr network WSN_EnergyEfficient
attr processid 22088
attr repetition 0
attr replication #0
attr resultdir results
attr runnumber 0
attr seedset 0
itervar txPower 2.24
config image-path ../../inet4.5/images
config *.protocolType "\"LEACH\""
config *.sensorNode*.numClusters 3
config *.sensorNode*.roundLength 20s
config *.sensorNode*.pClusterHead 0.05
config **.wlan[*].typename Ieee802154NarrowbandInterface
config **.wlan[*].radio.transmitter.power 2.24mW
config **.wlan[*].radio.receiver.sensitivity -85dBm
config **.wlan[*].mac.useMACAcks true
config network WSN_EnergyEfficient
config sim-time-limit 200s
config *.visualizer.energyStorageVisualizer.displayEnergyStorages true
config *.visualizer.dataLinkVisualizer.displayLinks true
config *.visualizer.dataLinkVisualizer.packetFilter "\"*\""
config *.visualizer.networkRouteVisualizer.displayRoutes true
config *.visualizer.networkRouteVisualizer.packetFilter "\"*\""
config *.visualizer.networkRouteVisualizer.lineColor "\"blue\""
config *.visualizer.physicalLinkVisualizer.displayLinks true
config *.visualizer.mobilityVisualizer.displayMobility true
config *.visualizer.mobilityVisualizer.displayMovementTrails true
config *.sensorNode*.hasStatus true
config *.sensorNode*.energyStorage.typename SimpleEpEnergyStorage
config *.sensorNode*.wlan[0].radio.energyConsumer.typename StateBasedEpEnergyConsumer
config *.sensorNode*.energyManagement.typename SimpleEpEnergyManagement
config *.sensorNode*.energyStorage.nominalCapacity 0.15J
config *.sensorNode*.energyStorage.initialCapacity 0.15J
config *.sensorNode*.energyStorage.printCapacityStep 0.0015J
config *.sensorNode*.energyManagement.nodeShutdownCapacity 0.06J
config *.sensorNode*.energyManagement.nodeStartCapacity 0.09J
config *.sensorNode*.mobility.typename StationaryMobility
config *.sensorNode*.mobility.initFromDisplayString true
config *.accessPoint*.mobility.typename StationaryMobility
config *.accessPoint*.mobility.initFromDisplayString true

vector 0 WSN_EnergyEfficient.sensorNode0.energyStorage powerConsumption:vector ETV
attr interpolationmode sample-hold
attr recordingmode vector
attr source powerConsumptionChanged
attr title "Power consumption"
attr unit W
0	189036 99 0 916 0 45.000000000001 7 0 0.002 0.002 4e-06
vector 2 WSN_EnergyEfficient.sensorNode0.energyStorage residualEnergyCapacity:vector ETV
attr interpolationmode linear
attr recordingmode vector
attr source residualEnergyCapacityChanged
attr title "Residual energy capacity"
attr unit J
2	189135 1168 0 931 0 200 63 0.059999999999998 0.15 6.525 0.7222725
vector 7 WSN_EnergyEfficient.sensorNode0.wlan[0].queue queueLength:vector ETV
attr autoWarmupFilter false
attr interpolationmode sample-hold
attr recordingmode vector
attr source "warmup(atomic(constant0(packetPushEnded) + count(packetPushStarted) - count(packetPulled) - count(packetRemoved) - count(packetDropped)))"
attr title "queue length"
attr unit pk
7	190303 45 0 0 0 0 5 0 0 0 0
vector 8 WSN_EnergyEfficient.sensorNode0.wlan[0].queue queueBitLength:vector ETV
attr autoWarmupFilter false
attr interpolationmode sample-hold
attr recordingmode vector
attr source "warmup(atomic(constant0(packetPushEnded) + sum(packetLength(packetPushStarted)) - sum(packetLength(packetPulled)) - sum(packetLength(packetRemoved)) - sum(packetLength(packetDropped))))"
attr title "queue bit length"
attr unit b
8	190348 45 0 0 0 0 5 0 0 0 0
vector 23 WSN_EnergyEfficient.sensorNode0.wlan[0].radio.energyConsumer powerConsumption:vector ETV
attr interpolationmode sample-hold
attr recordingmode vector
attr source powerConsumptionChanged
attr title "Power consumption"
attr unit W
23	190393 96 0 916 0 45.000000000001 6 0 0.002 0.002 4e-06
vector 24 WSN_EnergyEfficient.sensorNode0.wlan[0].radio radioMode:vector ETV
attr interpolationmode sample-hold
attr recordingmode vector
attr source radioModeChanged
attr title "Radio mode"
24	190489 56 0 916 0 45.000000000001 4 0 2 2 4
vector 25 WSN_EnergyEfficient.sensorNode0.wlan[0].radio receptionState:vector ETV
attr interpolationmode sample-hold
attr recordingmode vector
attr source receptionStateChanged
attr title "Radio reception state"
25	190545 36 0 916 0 45.000000000001 2 0 1 1 1
vector 39 WSN_EnergyEfficient.sensorNode0.udp passedUpPk:vector(count) ETV
attr interpolationmode none
attr recordingmode vector(count)
attr source packetSentToUpper
attr title "packets passed up, count"
39	190581 10 0 0 0 0 1 0 0 0 0
vector 40 WSN_EnergyEfficient.sensorNode0.udp droppedPkWrongPort:vector(count) ETV
attr interpolationmode none
attr recordingmode vector(count)
attr source packetDropReasonIsNoPortFound(packetDropped)
attr title "packets dropped (wrong port), count"
40	190591 10 0 0 0 0 1 0 0 0 0
vector 41 WSN_EnergyEfficient.sensorNode0.udp droppedPkBadChecksum:vector(count) ETV
attr interpolationmode none
attr recordingmode vector(count)
attr source packetDropReasonIsIncorrectlyReceived(packetDropped)
attr title "packets dropped (checksum error), count"
41	190601 10 0 0 0 0 1 0 0 0 0
vector 42 WSN_EnergyEfficient.sensorNode1.energyStorage powerConsumption:vector ETV
attr interpolationmode sample-hold
attr recordingmode vector
attr source powerConsumptionChanged
attr title "Power consumption"
attr unit W
42	190611 106 0 917 0 45.000000000001 7 0 0.002 0.002 4e-06
vector 44 WSN_EnergyEfficient.sensorNode1.energyStorage residualEnergyCapacity:vector ETV
attr interpolationmode linear
attr recordingmode vector
attr source residualEnergyCapacityChanged
attr title "Residual energy capacity"
attr unit J
44	190717 1562 0 931 0 200 81 0.059999999999998 0.15 8.9685 1.05506775
vector 49 WSN_EnergyEfficient.sensorNode1.wlan[0].queue queueLength:vector ETV
attr autoWarmupFilter false
attr interpolationmode sample-hold
attr recordingmode vector
attr source "warmup(atomic(constant0(packetPushEnded) + count(packetPushStarted) - count(packetPulled) - count(packetRemoved) - count(packetDropped)))"
attr title "queue length"
attr unit pk
49	192279 50 0 0 0 0 5 0 0 0 0
vector 50 WSN_EnergyEfficient.sensorNode1.wlan[0].queue queueBitLength:vector ETV
attr autoWarmupFilter false
attr interpolationmode sample-hold
attr recordingmode vector
attr source "warmup(atomic(constant0(packetPushEnded) + sum(packetLength(packetPushStarted)) - sum(packetLength(packetPulled)) - sum(packetLength(packetRemoved)) - sum(packetLength(packetDropped))))"
attr title "queue bit length"
attr unit b
50	192329 50 0 0 0 0 5 0 0 0 0
vector 65 WSN_EnergyEfficient.sensorNode1.wlan[0].radio.energyConsumer powerConsumption:vector ETV
attr interpolationmode sample-hold
attr recordingmode vector
attr source powerConsumptionChanged
attr title "Power consumption"
attr unit W
65	192379 96 0 917 0 45.000000000001 6 0 0.002 0.002 4e-06
vector 66 WSN_EnergyEfficient.sensorNode1.wlan[0].radio radioMode:vector ETV
attr interpolationmode sample-hold
attr recordingmode vector
attr source radioModeChanged
attr title "Radio mode"
66	192475 56 0 917 0 45.000000000001 4 0 2 2 4
vector 67 WSN_EnergyEfficient.sensorNode1.wlan[0].radio receptionState:vector ETV
attr interpolationmode sample-hold
attr recordingmode vector
attr source receptionStateChanged
attr title "Radio reception state"
67	192531 36 0 917 0 45.000000000001 2 0 1 1 1
vector 81 WSN_EnergyEfficient.sensorNode1.udp passedUpPk:vector(count) ETV
attr interpolationmode none
attr recordingmode vector(count)
attr source packetSentToUpper
attr title "packets passed up, count"
81	192567 10 0 0 0 0 1 0 0 0 0
vector 82 WSN_EnergyEfficient.sensorNode1.udp droppedPkWrongPort:vector(count) ETV
attr interpolationmode none
attr recordingmode vector(count)
attr source packetDropReasonIsNoPortFound(packetDropped)
attr title "packets dropped (wrong port), count"
82	192577 10 0 0 0 0 1 0 0 0 0
vector 83 WSN_EnergyEfficient.sensorNode1.udp droppedPkBadChecksum:vector(count) ETV
attr interpolationmode none
attr recordingmode vector(count)
attr source packetDropReasonIsIncorrectlyReceived(packetDropped)
attr title "packets dropped (checksum error), count"
83	192587 10 0 0 0 0 1 0 0 0 0
vector 84 WSN_EnergyEfficient.sensorNode2.energyStorage powerConsumption:vector ETV
attr interpolationmode sample-hold
attr recordingmode vector
attr source powerConsumptionChanged
attr title "Power consumption"
attr unit W
84	192597 106 0 918 0 45.000000000001 7 0 0.002 0.002 4e-06
vector 86 WSN_EnergyEfficient.sensorNode2.energyStorage residualEnergyCapacity:vector ETV
attr interpolationmode linear
attr recordingmode vector
attr source residualEnergyCapacityChanged
attr title "Residual energy capacity"
attr unit J
86	192703 1562 0 931 0 200 81 0.059999999999998 0.15 8.9685 1.05506775
vector 91 WSN_EnergyEfficient.sensorNode2.wlan[0].queue queueLength:vector ETV
attr autoWarmupFilter false
attr interpolationmode sample-hold
attr recordingmode vector
attr source "warmup(atomic(constant0(packetPushEnded) + count(packetPushStarted) - count(packetPulled) - count(packetRemoved) - count(packetDropped)))"
attr title "queue length"
attr unit pk
91	194265 50 0 0 0 0 5 0 0 0 0
vector 92 WSN_EnergyEfficient.sensorNode2.wlan[0].queue queueBitLength:vector ETV
attr autoWarmupFilter false
attr interpolationmode sample-hold
attr recordingmode vector
attr source "warmup(atomic(constant0(packetPushEnded) + sum(packetLength(packetPushStarted)) - sum(packetLength(packetPulled)) - sum(packetLength(packetRemoved)) - sum(packetLength(packetDropped))))"
attr title "queue bit length"
attr unit b
92	194315 50 0 0 0 0 5 0 0 0 0
vector 107 WSN_EnergyEfficient.sensorNode2.wlan[0].radio.energyConsumer powerConsumption:vector ETV
attr interpolationmode sample-hold
attr recordingmode vector
attr source powerConsumptionChanged
attr title "Power consumption"
attr unit W
107	194365 102 0 918 0 45.000000000001 6 0 0.002 0.002 4e-06
vector 108 WSN_EnergyEfficient.sensorNode2.wlan[0].radio radioMode:vector ETV
attr interpolationmode sample-hold
attr recordingmode vector
attr source radioModeChanged
attr title "Radio mode"
108	194467 60 0 918 0 45.000000000001 4 0 2 2 4
vector 109 WSN_EnergyEfficient.sensorNode2.wlan[0].radio receptionState:vector ETV
attr interpolationmode sample-hold
attr recordingmode vector
attr source receptionStateChanged
attr title "Radio reception state"
109	194527 38 0 918 0 45.000000000001 2 0 1 1 1
vector 123 WSN_EnergyEfficient.sensorNode2.udp passedUpPk:vector(count) ETV
attr interpolationmode none
attr recordingmode vector(count)
attr source packetSentToUpper
attr title "packets passed up, count"
123	194565 11 0 0 0 0 1 0 0 0 0
vector 124 WSN_EnergyEfficient.sensorNode2.udp droppedPkWrongPort:vector(count) ETV
attr interpolationmode none
attr recordingmode vector(count)
attr source packetDropReasonIsNoPortFound(packetDropped)
attr title "packets dropped (wrong port), count"
124	194576 11 0 0 0 0 1 0 0 0 0
vector 125 WSN_EnergyEfficient.sensorNode2.udp droppedPkBadChecksum:vector(count) ETV
attr interpolationmode none
attr recordingmode vector(count)
attr source packetDropReasonIsIncorrectlyReceived(packetDropped)
attr title "packets dropped (checksum error), count"
125	194587 11 0 0 0 0 1 0 0 0 0
vector 126 WSN_EnergyEfficient.sensorNode3.energyStorage powerConsumption:vector ETV
attr interpolationmode sample-hold
attr recordingmode vector
attr source powerConsumptionChanged
attr title "Power consumption"
attr unit W
126	194598 113 0 919 0 45.000000000001 7 0 0.002 0.002 4e-06
vector 128 WSN_EnergyEfficient.sensorNode3.energyStorage residualEnergyCapacity:vector ETV
attr interpolationmode linear
attr recordingmode vector
attr source residualEnergyCapacityChanged
attr title "Residual energy capacity"
attr unit J
128	194711 1643 0 931 0 200 81 0.059999999999998 0.15 8.9685 1.05506775
vector 133 WSN_EnergyEfficient.sensorNode3.wlan[0].queue queueLength:vector ETV
attr autoWarmupFilter false
attr interpolationmode sample-hold
attr recordingmode vector
attr source "warmup(atomic(constant0(packetPushEnded) + count(packetPushStarted) - count(packetPulled) - count(packetRemoved) - count(packetDropped)))"
attr title "queue length"
attr unit pk
133	196354 55 0 0 0 0 5 0 0 0 0
vector 134 WSN_EnergyEfficient.sensorNode3.wlan[0].queue queueBitLength:vector ETV
attr autoWarmupFilter false
attr interpolationmode sample-hold
attr recordingmode vector
attr source "warmup(atomic(constant0(packetPushEnded) + sum(packetLength(packetPushStarted)) - sum(packetLength(packetPulled)) - sum(packetLength(packetRemoved)) - sum(packetLength(packetDropped))))"
attr title "queue bit length"
attr unit b
134	196409 55 0 0 0 0 5 0 0 0 0
vector 149 WSN_EnergyEfficient.sensorNode3.wlan[0].radio.energyConsumer powerConsumption:vector ETV
attr interpolationmode sample-hold
attr recordingmode vector
attr source powerConsumptionChanged
attr title "Power consumption"
attr unit W
149	196464 102 0 919 0 45.000000000001 6 0 0.002 0.002 4e-06
vector 150 WSN_EnergyEfficient.sensorNode3.wlan[0].radio radioMode:vector ETV
attr interpolationmode sample-hold
attr recordingmode vector
attr source radioModeChanged
attr title "Radio mode"
150	196566 60 0 919 0 45.000000000001 4 0 2 2 4
vector 151 WSN_EnergyEfficient.sensorNode3.wlan[0].radio receptionState:vector ETV
attr interpolationmode sample-hold
attr recordingmode vector
attr source receptionStateChanged
attr title "Radio reception state"
151	196626 38 0 919 0 45.000000000001 2 0 1 1 1
vector 165 WSN_EnergyEfficient.sensorNode3.udp passedUpPk:vector(count) ETV
attr interpolationmode none
attr recordingmode vector(count)
attr source packetSentToUpper
attr title "packets passed up, count"
165	196664 11 0 0 0 0 1 0 0 0 0
vector 166 WSN_EnergyEfficient.sensorNode3.udp droppedPkWrongPort:vector(count) ETV
attr interpolationmode none
attr recordingmode vector(count)
attr source packetDropReasonIsNoPortFound(packetDropped)
attr title "packets dropped (wrong port), count"
166	196675 11 0 0 0 0 1 0 0 0 0
vector 167 WSN_EnergyEfficient.sensorNode3.udp droppedPkBadChecksum:vector(count) ETV
attr interpolationmode none
attr recordingmode vector(count)
attr source packetDropReasonIsIncorrectlyReceived(packetDropped)
attr title "packets dropped (checksum error), count"
167	196686 11 0 0 0 0 1 0 0 0 0
vector 168 WSN_EnergyEfficient.sensorNode4.energyStorage powerConsumption:vector ETV
attr interpolationmode sample-hold
attr recordingmode vector
attr source powerConsumptionChanged
attr title "Power consumption"
attr unit W
168	196697 113 0 920 0 45.000000000001 7 0 0.002 0.002 4e-06
vector 170 WSN_EnergyEfficient.sensorNode4.energyStorage residualEnergyCapacity:vector ETV
attr interpolationmode linear
attr recordingmode vector
attr source residualEnergyCapacityChanged
attr title "Residual energy capacity"
attr unit J
170	196810 1643 0 931 0 200 81 0.059999999999998 0.15 8.9685 1.05506775
vector 175 WSN_EnergyEfficient.sensorNode4.wlan[0].queue queueLength:vector ETV
attr autoWarmupFilter false
attr interpolationmode sample-hold
attr recordingmode vector
attr source "warmup(atomic(constant0(packetPushEnded) + count(packetPushStarted) - count(packetPulled) - count(packetRemoved) - count(packetDropped)))"
attr title "queue length"
attr unit pk
175	198453 55 0 0 0 0 5 0 0 0 0
vector 176 WSN_EnergyEfficient.sensorNode4.wlan[0].queue queueBitLength:vector ETV
attr autoWarmupFilter false
attr interpolationmode sample-hold
attr recordingmode vector
attr source "warmup(atomic(constant0(packetPushEnded) + sum(packetLength(packetPushStarted)) - sum(packetLength(packetPulled)) - sum(packetLength(packetRemoved)) - sum(packetLength(packetDropped))))"
attr title "queue bit length"
attr unit b
176	198508 55 0 0 0 0 5 0 0 0 0
vector 191 WSN_EnergyEfficient.sensorNode4.wlan[0].radio.energyConsumer powerConsumption:vector ETV
attr interpolationmode sample-hold
attr recordingmode vector
attr source powerConsumptionChanged
attr title "Power consumption"
attr unit W
191	198563 102 0 920 0 45.000000000001 6 0 0.002 0.002 4e-06
vector 192 WSN_EnergyEfficient.sensorNode4.wlan[0].radio radioMode:vector ETV
attr interpolationmode sample-hold
attr recordingmode vector
attr source radioModeChanged
attr title "Radio mode"
192	198665 60 0 920 0 45.000000000001 4 0 2 2 4
vector 193 WSN_EnergyEfficient.sensorNode4.wlan[0].radio receptionState:vector ETV
attr interpolationmode sample-hold
attr recordingmode vector
attr source receptionStateChanged
attr title "Radio reception state"
193	198725 38 0 920 0 45.000000000001 2 0 1 1 1
vector 207 WSN_EnergyEfficient.sensorNode4.udp passedUpPk:vector(count) ETV
attr interpolationmode none
attr recordingmode vector(count)
attr source packetSentToUpper
attr title "packets passed up, count"
207	198763 11 0 0 0 0 1 0 0 0 0
vector 208 WSN_EnergyEfficient.sensorNode4.udp droppedPkWrongPort:vector(count) ETV
attr interpolationmode none
attr recordingmode vector(count)
attr source packetDropReasonIsNoPortFound(packetDropped)
attr title "packets dropped (wrong port), count"
208	198774 11 0 0 0 0 1 0 0 0 0
vector 209 WSN_EnergyEfficient.sensorNode4.udp droppedPkBadChecksum:vector(count) ETV
attr interpolationmode none
attr recordingmode vector(count)
attr source packetDropReasonIsIncorrectlyReceived(packetDropped)
attr title "packets dropped (checksum error), count"
209	198785 11 0 0 0 0 1 0 0 0 0
vector 210 WSN_EnergyEfficient.sensorNode5.energyStorage powerConsumption:vector ETV
attr interpolationmode sample-hold
attr recordingmode vector
attr source powerConsumptionChanged
attr title "Power consumption"
attr unit W
210	198796 113 0 921 0 45.000000000001 7 0 0.002 0.002 4e-06
vector 212 WSN_EnergyEfficient.sensorNode5.energyStorage residualEnergyCapacity:vector ETV
attr interpolationmode linear
attr recordingmode vector
attr source residualEnergyCapacityChanged
attr title "Residual energy capacity"
attr unit J
212	198909 1643 0 931 0 200 81 0.059999999999998 0.15 8.9685 1.05506775
vector 217 WSN_EnergyEfficient.sensorNode5.wlan[0].queue queueLength:vector ETV
attr autoWarmupFilter false
attr interpolationmode sample-hold
attr recordingmode vector
attr source "warmup(atomic(constant0(packetPushEnded) + count(packetPushStarted) - count(packetPulled) - count(packetRemoved) - count(packetDropped)))"
attr title "queue length"
attr unit pk
217	200552 55 0 0 0 0 5 0 0 0 0
vector 218 WSN_EnergyEfficient.sensorNode5.wlan[0].queue queueBitLength:vector ETV
attr autoWarmupFilter false
attr interpolationmode sample-hold
attr recordingmode vector
attr source "warmup(atomic(constant0(packetPushEnded) + sum(packetLength(packetPushStarted)) - sum(packetLength(packetPulled)) - sum(packetLength(packetRemoved)) - sum(packetLength(packetDropped))))"
attr title "queue bit length"
attr unit b
218	200607 55 0 0 0 0 5 0 0 0 0
vector 233 WSN_EnergyEfficient.sensorNode5.wlan[0].radio.energyConsumer powerConsumption:vector ETV
attr interpolationmode sample-hold
attr recordingmode vector
attr source powerConsumptionChanged
attr title "Power consumption"
attr unit W
233	200662 102 0 921 0 45.000000000001 6 0 0.002 0.002 4e-06
vector 234 WSN_EnergyEfficient.sensorNode5.wlan[0].radio radioMode:vector ETV
attr interpolationmode sample-hold
attr recordingmode vector
attr source radioModeChanged
attr title "Radio mode"
234	200764 60 0 921 0 45.000000000001 4 0 2 2 4
vector 235 WSN_EnergyEfficient.sensorNode5.wlan[0].radio receptionState:vector ETV
attr interpolationmode sample-hold
attr recordingmode vector
attr source receptionStateChanged
attr title "Radio reception state"
235	200824 38 0 921 0 45.000000000001 2 0 1 1 1
vector 249 WSN_EnergyEfficient.sensorNode5.udp passedUpPk:vector(count) ETV
attr interpolationmode none
attr recordingmode vector(count)
attr source packetSentToUpper
attr title "packets passed up, count"
249	200862 11 0 0 0 0 1 0 0 0 0
vector 250 WSN_EnergyEfficient.sensorNode5.udp droppedPkWrongPort:vector(count) ETV
attr interpolationmode none
attr recordingmode vector(count)
attr source packetDropReasonIsNoPortFound(packetDropped)
attr title "packets dropped (wrong port), count"
250	200873 11 0 0 0 0 1 0 0 0 0
vector 251 WSN_EnergyEfficient.sensorNode5.udp droppedPkBadChecksum:vector(count) ETV
attr interpolationmode none
attr recordingmode vector(count)
attr source packetDropReasonIsIncorrectlyReceived(packetDropped)
attr title "packets dropped (checksum error), count"
251	200884 11 0 0 0 0 1 0 0 0 0
vector 252 WSN_EnergyEfficient.sensorNode6.energyStorage powerConsumption:vector ETV
attr interpolationmode sample-hold
attr recordingmode vector
attr source powerConsumptionChanged
attr title "Power consumption"
attr unit W
252	200895 113 0 922 0 45.000000000001 7 0 0.002 0.002 4e-06
vector 254 WSN_EnergyEfficient.sensorNode6.energyStorage residualEnergyCapacity:vector ETV
attr interpolationmode linear
attr recordingmode vector
attr source residualEnergyCapacityChanged
attr title "Residual energy capacity"
attr unit J
254	201008 1643 0 931 0 200 81 0.059999999999998 0.15 8.9685 1.05506775
vector 259 WSN_EnergyEfficient.sensorNode6.wlan[0].queue queueLength:vector ETV
attr autoWarmupFilter false
attr interpolationmode sample-hold
attr recordingmode vector
attr source "warmup(atomic(constant0(packetPushEnded) + count(packetPushStarted) - count(packetPulled) - count(packetRemoved) - count(packetDropped)))"
attr title "queue length"
attr unit pk
259	202651 55 0 0 0 0 5 0 0 0 0
vector 260 WSN_EnergyEfficient.sensorNode6.wlan[0].queue queueBitLength:vector ETV
attr autoWarmupFilter false
attr interpolationmode sample-hold
attr recordingmode vector
attr source "warmup(atomic(constant0(packetPushEnded) + sum(packetLength(packetPushStarted)) - sum(packetLength(packetPulled)) - sum(packetLength(packetRemoved)) - sum(packetLength(packetDropped))))"
attr title "queue bit length"
attr unit b
260	202706 55 0 0 0 0 5 0 0 0 0
vector 275 WSN_EnergyEfficient.sensorNode6.wlan[0].radio.energyConsumer powerConsumption:vector ETV
attr interpolationmode sample-hold
attr recordingmode vector
attr source powerConsumptionChanged
attr title "Power consumption"
attr unit W
275	202761 102 0 922 0 45.000000000001 6 0 0.002 0.002 4e-06
vector 276 WSN_EnergyEfficient.sensorNode6.wlan[0].radio radioMode:vector ETV
attr interpolationmode sample-hold
attr recordingmode vector
attr source radioModeChanged
attr title "Radio mode"
276	202863 60 0 922 0 45.000000000001 4 0 2 2 4
vector 277 WSN_EnergyEfficient.sensorNode6.wlan[0].radio receptionState:vector ETV
attr interpolationmode sample-hold
attr recordingmode vector
attr source receptionStateChanged
attr title "Radio reception state"
277	202923 38 0 922 0 45.000000000001 2 0 1 1 1
vector 291 WSN_EnergyEfficient.sensorNode6.udp passedUpPk:vector(count) ETV
attr interpolationmode none
attr recordingmode vector(count)
attr source packetSentToUpper
attr title "packets passed up, count"
291	202961 11 0 0 0 0 1 0 0 0 0
vector 292 WSN_EnergyEfficient.sensorNode6.udp droppedPkWrongPort:vector(count) ETV
attr interpolationmode none
attr recordingmode vector(count)
attr source packetDropReasonIsNoPortFound(packetDropped)
attr title "packets dropped (wrong port), count"
292	202972 11 0 0 0 0 1 0 0 0 0
vector 293 WSN_EnergyEfficient.sensorNode6.udp droppedPkBadChecksum:vector(count) ETV
attr interpolationmode none
attr recordingmode vector(count)
attr source packetDropReasonIsIncorrectlyReceived(packetDropped)
attr title "packets dropped (checksum error), count"
293	202983 11 0 0 0 0 1 0 0 0 0
vector 294 WSN_EnergyEfficient.sensorNode7.energyStorage powerConsumption:vector ETV
attr interpolationmode sample-hold
attr recordingmode vector
attr source powerConsumptionChanged
attr title "Power consumption"
attr unit W
294	202994 113 0 923 0 45.000000000001 7 0 0.002 0.002 4e-06
vector 296 WSN_EnergyEfficient.sensorNode7.energyStorage residualEnergyCapacity:vector ETV
attr interpolationmode linear
attr recordingmode vector
attr source residualEnergyCapacityChanged
attr title "Residual energy capacity"
attr unit J
296	203107 1643 0 931 0 200 81 0.059999999999998 0.15 8.9685 1.05506775
vector 301 WSN_EnergyEfficient.sensorNode7.wlan[0].queue queueLength:vector ETV
attr autoWarmupFilter false
attr interpolationmode sample-hold
attr recordingmode vector
attr source "warmup(atomic(constant0(packetPushEnded) + count(packetPushStarted) - count(packetPulled) - count(packetRemoved) - count(packetDropped)))"
attr title "queue length"
attr unit pk
301	204750 55 0 0 0 0 5 0 0 0 0
vector 302 WSN_EnergyEfficient.sensorNode7.wlan[0].queue queueBitLength:vector ETV
attr autoWarmupFilter false
attr interpolationmode sample-hold
attr recordingmode vector
attr source "warmup(atomic(constant0(packetPushEnded) + sum(packetLength(packetPushStarted)) - sum(packetLength(packetPulled)) - sum(packetLength(packetRemoved)) - sum(packetLength(packetDropped))))"
attr title "queue bit length"
attr unit b
302	204805 55 0 0 0 0 5 0 0 0 0
vector 317 WSN_EnergyEfficient.sensorNode7.wlan[0].radio.energyConsumer powerConsumption:vector ETV
attr interpolationmode sample-hold
attr recordingmode vector
attr source powerConsumptionChanged
attr title "Power consumption"
attr unit W
317	204860 102 0 923 0 45.000000000001 6 0 0.002 0.002 4e-06
vector 318 WSN_EnergyEfficient.sensorNode7.wlan[0].radio radioMode:vector ETV
attr interpolationmode sample-hold
attr recordingmode vector
attr source radioModeChanged
attr title "Radio mode"
318	204962 60 0 923 0 45.000000000001 4 0 2 2 4
vector 319 WSN_EnergyEfficient.sensorNode7.wlan[0].radio receptionState:vector ETV
attr interpolationmode sample-hold
attr recordingmode vector
attr source receptionStateChanged
attr title "Radio reception state"
319	205022 38 0 923 0 45.000000000001 2 0 1 1 1
vector 333 WSN_EnergyEfficient.sensorNode7.udp passedUpPk:vector(count) ETV
attr interpolationmode none
attr recordingmode vector(count)
attr source packetSentToUpper
attr title "packets passed up, count"
333	205060 11 0 0 0 0 1 0 0 0 0
vector 334 WSN_EnergyEfficient.sensorNode7.udp droppedPkWrongPort:vector(count) ETV
attr interpolationmode none
attr recordingmode vector(count)
attr source packetDropReasonIsNoPortFound(packetDropped)
attr title "packets dropped (wrong port), count"
334	205071 11 0 0 0 0 1 0 0 0 0
vector 335 WSN_EnergyEfficient.sensorNode7.udp droppedPkBadChecksum:vector(count) ETV
attr interpolationmode none
attr recordingmode vector(count)
attr source packetDropReasonIsIncorrectlyReceived(packetDropped)
attr title "packets dropped (checksum error), count"
335	205082 11 0 0 0 0 1 0 0 0 0
vector 336 WSN_EnergyEfficient.sensorNode8.energyStorage powerConsumption:vector ETV
attr interpolationmode sample-hold
attr recordingmode vector
attr source powerConsumptionChanged
attr title "Power consumption"
attr unit W
336	205093 113 0 924 0 45.000000000001 7 0 0.002 0.002 4e-06
vector 338 WSN_EnergyEfficient.sensorNode8.energyStorage residualEnergyCapacity:vector ETV
attr interpolationmode linear
attr recordingmode vector
attr source residualEnergyCapacityChanged
attr title "Residual energy capacity"
attr unit J
338	205206 1643 0 931 0 200 81 0.059999999999998 0.15 8.9685 1.05506775
vector 343 WSN_EnergyEfficient.sensorNode8.wlan[0].queue queueLength:vector ETV
attr autoWarmupFilter false
attr interpolationmode sample-hold
attr recordingmode vector
attr source "warmup(atomic(constant0(packetPushEnded) + count(packetPushStarted) - count(packetPulled) - count(packetRemoved) - count(packetDropped)))"
attr title "queue length"
attr unit pk
343	206849 55 0 0 0 0 5 0 0 0 0
vector 344 WSN_EnergyEfficient.sensorNode8.wlan[0].queue queueBitLength:vector ETV
attr autoWarmupFilter false
attr interpolationmode sample-hold
attr recordingmode vector
attr source "warmup(atomic(constant0(packetPushEnded) + sum(packetLength(packetPushStarted)) - sum(packetLength(packetPulled)) - sum(packetLength(packetRemoved)) - sum(packetLength(packetDropped))))"
attr title "queue bit length"
attr unit b
344	206904 55 0 0 0 0 5 0 0 0 0
vector 359 WSN_EnergyEfficient.sensorNode8.wlan[0].radio.energyConsumer powerConsumption:vector ETV
attr interpolationmode sample-hold
attr recordingmode vector
attr source powerConsumptionChanged
attr title "Power consumption"
attr unit W
359	206959 102 0 924 0 45.000000000001 6 0 0.002 0.002 4e-06
vector 360 WSN_EnergyEfficient.sensorNode8.wlan[0].radio radioMode:vector ETV
attr interpolationmode sample-hold
attr recordingmode vector
attr source radioModeChanged
attr title "Radio mode"
360	207061 60 0 924 0 45.000000000001 4 0 2 2 4
vector 361 WSN_EnergyEfficient.sensorNode8.wlan[0].radio receptionState:vector ETV
attr interpolationmode sample-hold
attr recordingmode vector
attr source receptionStateChanged
attr title "Radio reception state"
361	207121 38 0 924 0 45.000000000001 2 0 1 1 1
vector 375 WSN_EnergyEfficient.sensorNode8.udp passedUpPk:vector(count) ETV
attr interpolationmode none
attr recordingmode vector(count)
attr source packetSentToUpper
attr title "packets passed up, count"
375	207159 11 0 0 0 0 1 0 0 0 0
vector 376 WSN_EnergyEfficient.sensorNode8.udp droppedPkWrongPort:vector(count) ETV
attr interpolationmode none
attr recordingmode vector(count)
attr source packetDropReasonIsNoPortFound(packetDropped)
attr title "packets dropped (wrong port), count"
376	207170 11 0 0 0 0 1 0 0 0 0
vector 377 WSN_EnergyEfficient.sensorNode8.udp droppedPkBadChecksum:vector(count) ETV
attr interpolationmode none
attr recordingmode vector(count)
attr source packetDropReasonIsIncorrectlyReceived(packetDropped)
attr title "packets dropped (checksum error), count"
377	207181 11 0 0 0 0 1 0 0 0 0
vector 378 WSN_EnergyEfficient.sensorNode9.energyStorage powerConsumption:vector ETV
attr interpolationmode sample-hold
attr recordingmode vector
attr source powerConsumptionChanged
attr title "Power consumption"
attr unit W